327
Lattice="15.0 0.0 0.0 0.0 15.0 0.0 0.0 0.0 15.0" Properties=species:S:1:pos:R:3:momenta:R:3 timestep=0 pbc="T T T"
O        2.30000000       6.28000000       1.13000000       0.29517875       0.15092055       0.80440514
H        1.37000000       6.26000000       1.50000000      -0.06490221      -0.01191022      -0.07115985
H        2.31000000       5.89000000       0.21000000      -0.01300107       0.23583397      -0.00744224
O        2.25000000       2.75000000       9.96000000       0.39246084      -0.59167844      -0.44704937
H        2.60000000       2.58000000      10.88000000       0.08697474      -0.15735674      -0.01232532
H        1.37000000       2.30000000       9.84000000       0.11325498      -0.16130861      -0.17160238
O        0.19000000       3.68000000       6.47000000      -0.28282120      -0.67761445       0.03497966
H       -0.63000000       4.11000000       6.86000000      -0.18684342      -0.15339357      -0.21619363
H       -0.09000000       2.95000000       5.84000000       0.19359989       0.20900513      -0.17249517
O        5.69000000      12.75000000      11.65000000       0.79641272       0.55189551      -0.89140637
H        4.76000000      12.68000000      11.28000000       0.22920988       0.15929625       0.18151542
H        5.80000000      13.64000000      12.09000000       0.24044980      -0.06701248       0.24220664
O       15.55000000      15.11000000       7.03000000      -0.44247087      -1.03689544      -0.83261396
H       14.98000000      14.95000000       7.84000000       0.09889482      -0.27638201       0.17151618
H       14.96000000      15.21000000       6.23000000      -0.18630057      -0.09175425       0.04827765
O       11.35000000       7.03000000       7.17000000      -0.10466583       0.63474662       0.71356487
H       11.92000000       7.81000000       6.92000000       0.22930840       0.12045784      -0.23312071
H       10.75000000       7.29000000       7.93000000      -0.03868745       0.02291832      -0.23041566
O        7.68000000      11.44000000      10.23000000       0.62931627       0.85789913       1.08379939
H        6.90000000      11.61000000      10.83000000      -0.15899352       0.19494215       0.17385898
H        8.02000000      12.31000000       9.87000000       0.10739849      -0.05994210       0.15667945
O        8.50000000       7.98000000      18.23000000       0.74058631      -0.74575280       0.77805800
H        8.46000000       8.74000000      18.88000000      -0.10941496      -0.08765511      -0.14188582
H        8.72000000       8.34000000      17.32000000      -0.10853756      -0.06765601       0.18604299
O        6.85000000      10.12000000       6.65000000      -0.33301366       0.60138922      -0.40994090
H        7.54000000       9.96000000       7.35000000      -0.15807405      -0.21795663       0.20506351
H        6.12000000      10.69000000       7.03000000       0.18910721       0.01309804       0.07114538
O        3.35000000      14.35000000      10.61000000      -0.73455494      -0.47972105       0.52271919
H        2.57000000      14.04000000      10.08000000      -0.05346578       0.23593043      -0.09320046
H        3.93000000      14.93000000      10.04000000      -0.10911736      -0.18591985       0.12762376
O        4.38000000       3.92000000      14.99000000      -0.09707556       0.12744529      -0.52649470
H        5.20000000       3.36000000      15.08000000      -0.04975517      -0.25557181      -0.03646604
H        3.57000000       3.34000000      15.03000000      -0.17146487       0.10047978      -0.20606919
O        2.31000000      17.13000000       4.83000000      -0.24466705       0.19205912       0.16496112
H        2.65000000      17.90000000       5.37000000      -0.04979827       0.15302209       0.06023518
H        2.75000000      17.13000000       3.93000000      -0.10633638       0.12443332      -0.24061091
O        2.40000000      10.91000000       8.86000000      -0.69865665       0.67492371      -0.35265999
H        2.54000000      10.07000000       9.38000000       0.09336045       0.14212492      -0.19337413
H        1.85000000      11.55000000       9.41000000      -0.21041307       0.11296457       0.10547848
O        6.06000000       9.64000000       1.23000000      -0.72459985       0.54846204      -0.17973089
H        6.13000000      10.48000000       0.69000000      -0.19340697      -0.04472537      -0.04973485
H        6.52000000       9.77000000       2.11000000      -0.06964580       0.10767761       0.14874799
O        1.22000000       6.43000000       5.63000000      -0.12207862       0.08169744      -0.94987140
H        0.77000000       5.55000000       5.80000000       0.05752356      -0.22389932       0.00069658
H        1.21000000       6.97000000       6.47000000      -0.17428895       0.21074864       0.25521777
O       16.89000000       9.22000000       6.12000000      -0.02988142      -0.76266278      -0.30258644
H       17.84000000       8.93000000       6.20000000      -0.16279660       0.26156171      -0.23107243
H       16.81000000       9.87000000       5.37000000      -0.14482177      -0.03682490       0.22746946
O        6.13000000      13.65000000       7.26000000       0.93225941       0.81217115       0.98042566
H        5.64000000      12.78000000       7.35000000       0.28415749       0.08507536       0.24298758
H        5.90000000      14.08000000       6.39000000      -0.02826131       0.27701210       0.09183439
O       12.93000000      12.28000000      14.23000000      -0.61468495       0.89857789      -0.57338236
H       13.30000000      11.55000000      13.65000000       0.11015998      -0.08120086       0.17634032
H       13.45000000      12.33000000      15.08000000      -0.08547291       0.24752952       0.06204200
O        8.09000000       0.04000000       5.02000000       1.08520991       0.92714504       0.95594511
H        8.49000000       0.95000000       4.93000000       0.21857029      -0.27937953       0.19013443
H        7.09000000       0.12000000       5.08000000       0.14926314       0.26372492      -0.11299843
O        1.97000000       9.76000000      12.64000000       0.55044427       0.96043403       0.94551604
H        2.86000000       9.31000000      12.50000000       0.21629317      -0.04673241       0.19411812
H        1.24000000       9.11000000      12.45000000       0.28148323      -0.12697316      -0.12230705
O       15.25000000       9.99000000       1.90000000      -0.05359156       0.69924138      -0.58896978
H       14.62000000       9.23000000       2.03000000      -0.22755668       0.20272687       0.19136073
H       15.73000000      10.17000000       2.76000000      -0.20658741      -0.14804915       0.13429506
O       14.66000000      14.17000000       9.53000000      -0.07749242      -1.04295612       0.66035917
H       14.07000000      14.23000000      10.33000000       0.24829506      -0.14642776       0.20413994
H       14.51000000      13.29000000       9.07000000      -0.03205258      -0.01924280       0.13722792
O        5.98000000       7.29000000       2.70000000       0.07119898      -0.60693521      -0.69784878
H        6.22000000       7.98000000       2.02000000       0.10914097      -0.21769187       0.12389252
H        5.20000000       7.62000000       3.24000000       0.09815442      -0.26166022       0.13226524
O       12.81000000       3.45000000       9.44000000      -0.62980002       0.77493401      -0.19882669
H       11.95000000       2.95000000       9.31000000      -0.09688584      -0.17012568      -0.00404242
H       13.43000000       2.91000000      10.00000000       0.02142480       0.10481863       0.23068555
O        8.07000000       6.05000000      14.65000000      -0.31144700      -0.92509278      -0.22746063
H        7.60000000       6.02000000      15.54000000      -0.20140616      -0.26792104       0.22929711
H        7.56000000       5.50000000      13.99000000      -0.21847794      -0.10044448       0.08995256
O       13.94000000       4.69000000      16.74000000      -0.28406885       0.83011216      -0.83184681
H       13.74000000       5.12000000      17.62000000      -0.05435365       0.03687180      -0.15003073
H       14.72000000       4.07000000      16.83000000       0.04902688       0.23884483       0.19660767
O        9.73000000       8.90000000      15.72000000       0.97779844      -0.02893705       0.09982250
H       10.19000000       8.06000000      15.43000000      -0.17761177      -0.14520864      -0.26181004
H        9.17000000       9.24000000      14.97000000       0.23950672      -0.05679384      -0.15988631
O        9.91000000       4.10000000      12.42000000      -0.89067831      -0.00019703       0.03716027
H        9.14000000       4.44000000      12.96000000      -0.01103160      -0.07211144       0.05067361
H        9.57000000       3.59000000      11.63000000       0.01215764       0.07662495      -0.21687194
O       10.41000000       7.01000000       4.29000000       0.59198465       0.33485418       0.36894941
H       10.67000000       6.97000000       5.25000000      -0.15724180       0.18935042       0.19026989
H        9.56000000       6.50000000       4.15000000       0.15600524      -0.23927378      -0.18852125
O        0.76000000       8.11000000       7.89000000      -0.62083847       0.83603928      -0.07833206
H        1.75000000       7.99000000       7.98000000       0.06277522       0.26923046       0.10792185
H        0.52000000       9.06000000       8.10000000       0.09130713       0.17538698      -0.06332895
O        8.65000000       3.48000000       1.95000000       1.00232623       1.03149115      -0.17870476
H        9.24000000       4.11000000       1.46000000       0.18859822      -0.04056025      -0.26277262
H        8.84000000       2.54000000       1.66000000      -0.07612099       0.00299930       0.22224305
O       17.19000000       5.85000000      18.31000000       0.61271575       0.46880172       0.15099255
H       16.93000000       6.74000000      17.95000000       0.24513027      -0.10769916      -0.08436790
H       17.17000000       5.17000000      17.58000000      -0.02359253       0.03416367       0.20256473
O       13.62000000      11.44000000       5.45000000       0.52553535       0.26020235      -0.52057735
H       14.45000000      11.15000000       4.97000000       0.09454786      -0.28610624      -0.18212293
H       13.13000000      12.11000000       4.89000000      -0.24905957       0.08084508      -0.07252725
O        5.50000000       1.96000000       8.85000000       0.98206910      -0.14339071      -0.12598574
H        5.45000000       1.91000000       9.85000000      -0.18823494       0.25344040      -0.26300967
H        5.52000000       2.92000000       8.56000000      -0.09114848      -0.00878380      -0.18834988
O       10.08000000      14.56000000       4.77000000      -0.43075344       0.41476045      -0.33067310
H        9.62000000      15.28000000       4.25000000      -0.20651045       0.01722119       0.28311283
H       10.04000000      14.76000000       5.75000000      -0.07232253      -0.14459395      -0.12422398
O        3.21000000       9.43000000       2.42000000       0.11965435       0.38480069      -0.55726560
H        4.03000000       9.82000000       2.00000000      -0.14480124      -0.24673524       0.12667761
H        2.94000000       8.61000000       1.93000000      -0.09135075      -0.01053430      -0.16331482
O        4.61000000      12.66000000      17.27000000      -0.36942176      -0.13639559       0.60140877
H        4.11000000      12.67000000      16.41000000       0.28018407       0.11906222       0.10233801
H        3.98000000      12.48000000      18.03000000       0.24515387      -0.27525833      -0.19925833
O       11.11000000      17.76000000       2.37000000       0.08025890      -1.12805494      -0.52182336
H       10.51000000      17.14000000       2.87000000      -0.08351647      -0.27963197      -0.09794231
H       11.42000000      17.32000000       1.52000000       0.03857282       0.07992089       0.25073432
O       16.32000000      13.77000000       0.81000000      -0.22771146      -0.18280114       0.35362097
H       16.00000000      14.71000000       0.71000000       0.03878483       0.24664596      -0.06074017
H       15.56000000      13.14000000       0.69000000       0.13302258       0.24722268      -0.00145056
O        3.82000000       7.00000000       4.80000000       0.02089610       1.05622904      -0.09753406
H        4.27000000       6.10000000       4.77000000       0.27349225      -0.22063089      -0.00295688
H        2.88000000       6.89000000       5.13000000       0.14536770      -0.08502261      -0.06676271
O        6.14000000       1.22000000       1.17000000       1.18792886      -0.59166052      -0.15099613
H        7.12000000       1.00000000       1.24000000      -0.23089284       0.19123759       0.20000950
H        5.83000000       1.05000000       0.24000000       0.19051720      -0.06056828      -0.17380254
O       13.51000000       5.90000000      14.33000000      -0.98497810      -0.77874535      -0.96513469
H       13.79000000       5.47000000      15.18000000      -0.04104380       0.05874443      -0.04540584
H       13.76000000       6.86000000      14.34000000       0.20576338       0.22408301       0.11219903
O        8.03000000      14.02000000       9.24000000       0.34675404      -0.34921513       0.91173516
H        8.93000000      14.16000000       8.82000000      -0.17336948      -0.19384105       0.07880090
H        7.32000000      14.04000000       8.53000000      -0.08697752      -0.12455134      -0.19970883
O        9.22000000       5.03000000       8.99000000      -0.78856852      -0.52248628       0.79807407
H        8.97000000       4.94000000       8.03000000      -0.26964915       0.03147484      -0.25251682
H        9.70000000       4.21000000       9.30000000       0.15572509       0.13257208       0.08513508
O        5.39000000       0.64000000       5.12000000      -0.24279233       0.23747599      -0.47667198
H        4.58000000       0.65000000       5.70000000      -0.24039438       0.18523127       0.03671849
H        5.42000000       1.47000000       4.57000000      -0.09551874       0.15546443      -0.23729733
O        2.97000000       0.35000000       1.71000000       0.05742424      -0.68080523       0.33520111
H        3.46000000       1.19000000       1.50000000       0.16405163       0.22014653       0.21479492
H        3.59000000      -0.30000000       2.16000000       0.09947842      -0.09415298      -0.06175159
O        9.35000000       2.36000000       4.80000000       0.58912126      -0.61844743      -0.96125493
H        8.87000000       2.77000000       4.02000000      -0.02519955       0.20688604      -0.11720583
H       10.34000000       2.34000000       4.61000000       0.18501167       0.27236241       0.09250039
O       12.27000000      15.70000000       7.93000000       1.11163196       0.09629114      -0.59067511
H       12.48000000      16.44000000       7.28000000      -0.09014692      -0.16275042      -0.05384712
H       12.95000000      15.70000000       8.66000000      -0.10066162      -0.20709641      -0.17479589
O        4.59000000      11.52000000       7.41000000       0.17308384      -0.40543244      -0.21404112
H        3.88000000      11.25000000       8.06000000       0.01258146      -0.16194588      -0.12408339
H        4.33000000      11.24000000       6.48000000       0.11598774      -0.09312781       0.18006233
O       10.32000000       5.49000000       0.16000000       0.78720360       0.81108150       0.65562757
H        9.91000000       6.31000000      -0.23000000       0.02541762      -0.17346595      -0.07017993
H       10.96000000       5.75000000       0.89000000       0.03434018      -0.27342862      -0.02996264
O        0.78000000       5.56000000      13.86000000      -0.52914798       0.44645324      -0.20403879
H        1.70000000       5.55000000      13.45000000      -0.09055463      -0.21975247       0.03915714
H        0.72000000       6.30000000      14.53000000       0.11856451       0.18081350      -0.02555718
O        5.61000000       2.22000000      11.47000000       1.16994877       0.57668227       0.02562216
H        5.99000000       1.38000000      11.84000000      -0.18273659      -0.20392341      -0.06863972
H        4.73000000       2.41000000      11.91000000      -0.12722970       0.04264199      -0.00282626
O        8.66000000       4.54000000       6.42000000       0.39980989      -0.66499793       0.86078207
H        8.34000000       5.26000000       5.80000000      -0.24278336       0.23749949       0.23723781
H        8.90000000       3.73000000       5.89000000       0.16766897      -0.13836700      -0.22622366
O       14.66000000       5.90000000       9.92000000      -0.71330589      -0.62330444       0.55952960
H       14.36000000       4.95000000       9.99000000       0.13810737       0.19681291      -0.09991948
H       15.39000000       6.06000000      10.58000000       0.21726805      -0.07335847       0.04404911
O        5.27000000       2.56000000       3.28000000       1.00901399      -1.18319075       0.82321916
H        5.54000000       1.97000000       2.53000000      -0.22033022      -0.08803850       0.20954080
H        5.27000000       3.51000000       2.97000000       0.13140221       0.19420022       0.16559195
O       10.64000000      13.47000000      13.40000000      -0.27321466      -1.00666041      -0.46650188
H        9.84000000      13.24000000      13.95000000      -0.20267453      -0.07454988      -0.16087453
H       11.47000000      13.21000000      13.89000000       0.12249484      -0.01832538       0.26601539
O       11.11000000      11.95000000      11.00000000       1.00367323      -1.05279721      -0.70525809
H       10.71000000      12.39000000      11.81000000      -0.12354669       0.22223586       0.21557688
H       10.70000000      12.32000000      10.17000000       0.22487318      -0.23808134       0.03596526
O       16.38000000      10.99000000      10.79000000       1.16766197       0.31736435       0.75922606
H       16.43000000      11.80000000      11.38000000      -0.02591081       0.14319832      -0.26333702
H       15.52000000      11.01000000      10.28000000       0.06813904      -0.18429230      -0.26369106
O        9.80000000      11.16000000      17.19000000      -0.76177836       0.35241731      -1.06765330
H        8.81000000      11.22000000      17.29000000       0.05738913      -0.21877758       0.00914964
H       10.03000000      10.36000000      16.63000000      -0.23724909      -0.16996662      -0.15631515
O        7.05000000      10.50000000       3.68000000      -0.90754106      -0.29183161      -0.83539917
H        6.91000000      10.57000000       4.67000000       0.19321507      -0.01663329      -0.17381588
H        7.89000000       9.99000000       3.50000000       0.06666614      -0.02306486      -0.11134421
O        4.10000000       8.13000000      12.51000000       0.78443305      -0.82246667      -1.04963086
H        4.96000000       8.25000000      13.01000000      -0.04993116       0.18321069       0.05607735
H        3.68000000       7.26000000      12.78000000       0.22918936      -0.18541599       0.10184123
O       12.74000000       3.86000000      12.62000000      -0.60302777      -0.91167490       0.59491157
H       12.95000000       4.60000000      13.26000000      -0.06000326       0.21672622      -0.08642778
H       11.85000000       4.03000000      12.19000000      -0.10141864       0.09274709       0.07236901
O        3.67000000      11.00000000       5.01000000      -0.02081172      -1.12146816       0.08417025
H        3.60000000      11.83000000       4.45000000      -0.22117785      -0.17370915      -0.20284180
H        3.71000000      10.20000000       4.41000000      -0.20820367      -0.13591029      -0.26487529
O        5.66000000       5.37000000       8.65000000       1.12274187       0.33849613       0.91310659
H        5.78000000       6.03000000       7.91000000      -0.02576109      -0.17193076       0.24324515
H        6.12000000       5.71000000       9.48000000      -0.22760697      -0.07166094       0.26107837
O       12.52000000      13.48000000       3.88000000      -0.16042529       0.46768926      -0.54714762
H       13.02000000      14.25000000       4.28000000       0.24277310      -0.08366568       0.08815302
H       11.57000000      13.50000000       4.20000000       0.23808031      -0.23513924       0.21825730
O       12.72000000      14.45000000      11.42000000      -0.05838570       1.01537763       0.90443009
H       13.19000000      14.58000000      12.29000000       0.03590769       0.02293341       0.02368366
H       12.06000000      13.71000000      11.51000000      -0.02571604       0.01950150       0.10312952
O        3.54000000      15.10000000      13.29000000      -0.05987017       0.78131231      -0.86366663
H        3.33000000      14.66000000      12.42000000      -0.05764578       0.20021782      -0.06009531
H        4.51000000      15.36000000      13.32000000       0.21327821       0.24195830      -0.14787675
O        4.02000000       7.51000000      15.98000000       0.09731124       0.10463065       0.25964693
H        4.70000000       8.06000000      15.51000000       0.08962069       0.14498185       0.26324569
H        4.42000000       6.63000000      16.25000000       0.11716786      -0.08636888      -0.04219375
O        5.73000000       8.70000000      10.29000000      -0.58142690       0.38207249       0.77818994
H        6.17000000       9.59000000      10.20000000      -0.11585023      -0.09618536      -0.24386805
H        5.10000000       8.70000000      11.06000000      -0.02738258      -0.24308814       0.26723246
O       13.60000000       8.62000000      10.45000000      -0.95550046       0.30905921       0.49172352
H       12.85000000       8.62000000       9.79000000       0.03519818      -0.01074170      -0.25047983
H       13.97000000       7.70000000      10.54000000      -0.16566892       0.11704985       0.25642868
O       12.09000000       5.25000000       2.75000000      -0.15456413       0.10751294      -0.72978099
H       12.22000000       4.41000000       3.29000000       0.20046000      -0.00287367       0.04597692
H       11.80000000       5.99000000       3.35000000      -0.21342495      -0.11881593      -0.06012281
O        3.07000000       2.13000000      12.31000000      -0.88850877       0.50968407      -0.30861618
H        2.84000000       2.50000000      13.21000000      -0.22120043       0.00194271       0.01850784
H        2.77000000       1.18000000      12.25000000       0.18960491      -0.11551158      -0.02225068
O        0.37000000      13.10000000      12.82000000      -0.77307068      -0.70730221      -0.11438378
H        0.90000000      12.61000000      13.50000000       0.25402430      -0.11369317      -0.03400441
H        0.59000000      14.08000000      12.87000000      -0.13678666       0.23715879       0.17543008
O        7.32000000       6.34000000      10.64000000      -0.28412260      -0.08358015       0.72111914
H        7.91000000       6.08000000       9.88000000      -0.04627031      -0.01120697      -0.14286892
H        7.04000000       7.30000000      10.53000000      -0.21284105       0.07059247      -0.24173767
O        3.07000000       0.63000000       6.18000000       0.52086075       0.33328567       0.95941930
H        2.96000000       1.57000000       6.51000000       0.20946589       0.15690213       0.15544699
H        3.02000000       0.00000000       6.95000000      -0.16037683       0.15105795      -0.10810040
O       10.23000000       7.66000000       9.66000000      -0.83374270      -0.28548589       0.21212079
H       10.38000000       7.87000000      10.62000000      -0.19154442       0.12618709      -0.20948949
H        9.93000000       6.71000000       9.57000000       0.18829241      -0.08936568      -0.01216359
O       13.03000000       8.38000000       0.42000000       0.09803784      -1.16504615       0.19237347
H       13.37000000       7.45000000       0.57000000      -0.02117564      -0.11608933      -0.10619887
H       13.21000000       8.65000000      -0.53000000       0.00300440       0.26258893       0.03431904
O       10.68000000      13.33000000       8.49000000      -0.76843518       0.83138423       0.32697740
H       10.75000000      12.49000000       7.94000000      -0.12377656      -0.24115684      -0.11823408
H       11.30000000      14.02000000       8.13000000      -0.11550645       0.02450810      -0.12511882
O        3.39000000       5.09000000      10.06000000       1.11335196      -0.18281254       0.16946469
H        2.87000000       4.26000000       9.89000000      -0.22380389      -0.14913897      -0.05178262
H        4.16000000       5.14000000       9.42000000       0.05458865      -0.28540945       0.19605250
O       10.02000000       7.96000000      12.38000000      -0.13934596      -0.27388572      -0.33123178
H       10.43000000       7.64000000      13.24000000       0.25437731       0.15976111       0.07116518
H        9.06000000       7.69000000      12.35000000       0.12320394      -0.00021937      -0.07832854
O        8.15000000       5.72000000       3.25000000       0.56698126       0.27250615      -0.44016778
H        8.22000000       4.83000000       2.79000000      -0.21498682       0.24043235       0.26578450
H        7.21000000       6.06000000       3.17000000      -0.24177461       0.20502760      -0.20759616
O        6.71000000       4.64000000      12.69000000      -0.98084100      -0.90532917      -0.60421352
H        6.37000000       3.75000000      12.39000000      -0.23655641       0.13354594       0.02269553
H        6.97000000       5.18000000      11.89000000      -0.21207037      -0.00681339       0.08479860
O        4.73000000       5.00000000       1.91000000      -0.21385218      -0.95323320       0.93177077
H        5.34000000       5.80000000       1.95000000      -0.24732941      -0.27510132       0.17701453
H        3.78000000       5.31000000       1.98000000      -0.08200006      -0.27551796      -0.02966812
O        1.59000000      11.37000000      14.66000000       1.13864038       0.14595131       0.42380669
H        1.81000000      10.76000000      15.42000000       0.02550895       0.22794151      -0.14989219
H        1.69000000      10.88000000      13.80000000       0.09896183      -0.28268080       0.19440032
O       13.47000000      10.59000000      12.34000000      -0.18407973       0.63197118      -0.97743685
H       13.71000000       9.96000000      11.60000000      -0.04978985      -0.27346659      -0.10860427
H       12.57000000      10.99000000      12.16000000      -0.22419795       0.02542706       0.03044454
O       13.02000000       8.55000000       3.09000000      -0.75991666       0.19675977       0.53077676
H       12.16000000       8.24000000       3.51000000       0.09825304       0.26327135       0.17782933
H       12.98000000       8.41000000       2.10000000       0.01177733      -0.08691923      -0.23181129
O        9.03000000       0.86000000       1.33000000      -0.32021634      -0.02654030      -0.06384684
H        9.54000000       0.87000000       0.47000000       0.26005730      -0.08457673       0.06588110
H        9.59000000       0.44000000       2.04000000       0.21781194       0.00084950      -0.23443732
O       12.80000000       9.27000000       6.72000000      -0.19612944       0.31476645      -0.20018347
H       13.40000000       8.46000000       6.74000000      -0.18446881       0.11816738      -0.21464715
H       13.20000000       9.96000000       6.12000000       0.13792368      -0.06163009       0.10015735
O        8.30000000      12.73000000      14.22000000      -0.55247861      -0.69354066      -0.25171641
H        8.25000000      13.06000000      15.17000000       0.12458110      -0.06663002      -0.12533432
H        7.44000000      12.92000000      13.76000000       0.03589681      -0.16045585       0.00461549
O        2.63000000       3.26000000       7.20000000       0.11442694       0.15839665       0.62773309
H        1.84000000       3.77000000       6.86000000       0.22517899      -0.19084045       0.10652212
H        2.54000000       3.11000000       8.18000000      -0.21918704      -0.13503289      -0.23901723
O       11.94000000      16.12000000       0.31000000      -0.06351848       0.13431499       0.33807102
H       12.00000000      15.19000000       0.68000000      -0.13801194       0.04193279      -0.02915779
H       11.35000000      16.12000000      -0.49000000      -0.22236311      -0.27384731      -0.26439811
O        8.22000000      10.02000000      13.72000000      -0.71484997       0.38457592       0.17422887
H        8.62000000      10.01000000      12.80000000       0.13279887      -0.11008507       0.01584455
H        8.32000000      10.94000000      14.12000000       0.16321836      -0.19055928      -0.27409976
O        3.72000000      12.88000000      14.90000000      -0.60799066      -1.18354419      -0.62337937
H        3.59000000      13.81000000      14.56000000       0.12758579       0.04385988       0.08206512
H        2.88000000      12.36000000      14.77000000      -0.15296052       0.22486087       0.16521329
O       10.39000000      10.98000000       6.96000000      -0.84261955       1.05837252      -0.02407401
H        9.69000000      10.51000000       7.50000000      -0.02503054       0.21628701      -0.11029236
H       10.98000000      10.30000000       6.53000000      -0.27442609       0.14331634       0.02070143
O       10.14000000       2.36000000       9.71000000       1.09358183       0.06800983       0.43904229
H       10.06000000       2.00000000       8.78000000       0.00345062      -0.16541750      -0.14097148